LAMMPS (28 Mar 2023 - Update 1)
log ACE_MD/coeff_907/log.lammps
