LAMMPS (28 Mar 2023 - Update 1)
log ACE_MD_2body_8deg_3/coeff_2063/log.lammps
