units metal
dimension 3
atom_style atomic
atom_modify map array
boundary p p p
region mybox block -5 5 -5 5 -5 5
read_data ACE_MD_2body_8deg/coeff_3/starting_configuration.lj
Reading data file ...
  orthogonal box = (-5 -5 -5) to (5 5 5)
  1 by 1 by 1 MPI processor grid
  reading atoms ...
  13 atoms
  reading velocities ...
  13 velocities
  read_data CPU = 0.000 seconds
mass 1 39.948
velocity all create 72.0 1 mom yes rot yes dist gaussian
pair_style pace
ACE version: 2022.6.27
Recursive evaluator is used
pair_coeff * * ACE_MD_2body_8deg/coeff_3/parameters.ace Ar
Loading ACE_MD_2body_8deg/coeff_3/parameters.ace
Total number of basis functions
	Ar: 8 (r=1) 0 (r>1)
Mapping LAMMPS atom type #1(Ar) -> ACE species type #0
compute S all pressure NULL virial
fix vir all ave/time 1 500 500 c_S[1] c_S[2] c_S[3] c_S[6] c_S[5] c_S[4] file ACE_MD_2body_8deg/coeff_3/tmp.virial
compute rdf all rdf 100
fix frdf all ave/time 500 9999 5000000 c_rdf[*] file ACE_MD_2body_8deg/coeff_3/tmp.rdf mode vector
compute pe all pe
fix fpe all ave/time 1 500 500 c_pe file ACE_MD_2body_8deg/coeff_3/tmp.pe
compute msd all msd com yes
fix fmsd all ave/time 1 500 500 c_msd[4] file ACE_MD_2body_8deg/coeff_3/tmp.msd
thermo 500
fix l0 all nve langevin 72.0 72.0 1 1
timestep 0.0025
dump 1 all xyz 500 ACE_MD_2body_8deg/coeff_3/dump.xyz
dump 2 all custom 500 ACE_MD_2body_8deg/coeff_3/dump.positions_and_forces type id x y z fx fy fz
run 5000000
Neighbor list info ...
  update: every = 1 steps, delay = 0 steps, check = yes
  max neighbors/atom: 2000, page size: 100000
  master list distance cutoff = 6
  ghost atom cutoff = 6
  binsize = 3, bins = 4 4 4
  2 neighbor lists, perpetual/occasional/extra = 1 1 0
  (1) pair pace, perpetual
      attributes: full, newton on
      pair build: full/bin/atomonly
      stencil: full/bin/3d
      bin: standard
  (2) compute rdf, occasional, half/full from (1)
      attributes: half, newton on
      pair build: halffull/newton
      stencil: none
      bin: none
Per MPI rank memory allocation (min/avg/max) = 6.322 | 6.322 | 6.322 Mbytes
   Step          Temp          E_pair         E_mol          TotEng         Press     
         0   72            -0.20627923     0             -0.094598463    115.57383    
       500   40.122144     -0.15682399     0             -0.09458966     83.320525    
      1000   61.022744     -0.18925144     0             -0.094597734    17.798328    
      1500   50.697539     -0.17323643     0             -0.094598374    47.628313    
      2000   46.360813     -0.16650885     0             -0.094597585   -3.3430846    
      2500   41.142103     -0.15841155     0             -0.09459514    -12.144519    
      3000   43.065226     -0.16139685     0             -0.094597443    4.2167689    
      3500   46.123689     -0.16614089     0             -0.094597437   -3.5061165    
      4000   51.361839     -0.17426502     0             -0.094596551    27.950567    
      4500   72.741621     -0.2074292      0             -0.094598093    12.082671    
      5000   58.63117      -0.18554093     0             -0.094596848    21.267709    
      5500   68.834615     -0.20136821     0             -0.094597338    18.990807    
      6000   65.5151       -0.19621927     0             -0.094597374   -45.750051    
      6500   66.047588     -0.19704568     0             -0.094597833   -2.714258     
      7000   100.68603     -0.25077417     0             -0.094597875    59.971227    
      7500   80.054717     -0.21877419     0             -0.094599576   -3.807995     
      8000   96.828616     -0.24479045     0             -0.094597475    23.001074    
      8500   88.975808     -0.23260933     0             -0.094597025    10.091216    
      9000   64.928063     -0.19530902     0             -0.094597688   -9.3081925    
      9500   84.688212     -0.22595735     0             -0.094595625    256.58612    
     10000   64.197074     -0.19417528     0             -0.094597799   -45.325471    
     10500   74.723369     -0.21050257     0             -0.094597531    0.47884083   
     11000   74.820591     -0.21065127     0             -0.094595425   -44.627722    
     11500   84.086945     -0.22502681     0             -0.094597722    19.652306    
     12000   97.102245     -0.24520891     0             -0.094591506    76.671009    
     12500   62.086031     -0.19090014     0             -0.094597152   -37.802262    
     13000   104.57897     -0.25679281     0             -0.094578098    361.67998    
     13500   62.728044     -0.19189606     0             -0.094597225   -44.88182     
     14000   73.384519     -0.20842672     0             -0.094598395    61.066989    
     14500   60.694174     -0.18873825     0             -0.094594195   -22.743672    
     15000   70.644445     -0.20417558     0             -0.094597449    35.244932    
     15500   68.615862     -0.20102964     0             -0.094598081    8.3094915    
     16000   46.715879     -0.16705941     0             -0.094597393    5.4171352    
     16500   66.805437     -0.1982209      0             -0.094597531    41.706932    
     17000   61.065596     -0.18931771     0             -0.094597532   -30.667876    
     17500   94.266612     -0.24081822     0             -0.094599225   -25.462251    
     18000   72.539007     -0.20711409     0             -0.094597262   -25.944731    
     18500   86.255297     -0.22839002     0             -0.09459755    -3.5409556    
     19000   102.03714     -0.25286223     0             -0.0945902     -45.481429    
     19500   72.760523     -0.20745802     0             -0.094597591   -43.714433    
     20000   66.563817     -0.19784544     0             -0.094596861   -51.413028    
     20500   71.44204      -0.20543997     0             -0.094624664    69.490639    
     21000   67.768796     -0.19971658     0             -0.09459893    -49.140045    
     21500   110.07463     -0.26533854     0             -0.094599385    74.804239    
     22000   60.896976     -0.18905565     0             -0.094597027   -49.180394    
     22500   49.020871     -0.17063501     0             -0.094597667   -47.385852    
     23000   112.49087     -0.26908657     0             -0.094599532    80.277231    
     23500   68.064937     -0.20017504     0             -0.094598041   -69.165149    
     24000   83.005039     -0.22334869     0             -0.094597773   -11.49407     
     24500   71.239374     -0.20494724     0             -0.094446294    408.31649    
     25000   74.470098     -0.21010928     0             -0.094597096    4.6747717    
     25500   101.12843     -0.25146879     0             -0.094606276    49.768441    
     26000   60.010402     -0.1876819      0             -0.094598458   -21.793083    
     26500   95.271476     -0.24237515     0             -0.094597489    63.370369    
     27000   69.911125     -0.20303871     0             -0.094598048    11.674461    
     27500   68.160306     -0.20032275     0             -0.094597815   -59.822297    
     28000   124.51376     -0.28771342     0             -0.094577414    59.303857    
     28500   68.818471     -0.20134204     0             -0.094596216   -46.387782    
     29000   79.901343     -0.21849806     0             -0.094561347    176.3527     
     29500   100.72054     -0.25082749     0             -0.094597678   -24.051379    
     30000   79.097743     -0.21728795     0             -0.094597717   -23.581239    
     30500   121.00279     -0.28228475     0             -0.094594696    108.92456    
     31000   84.457491     -0.22560202     0             -0.094598173   -0.74745305   
     31500   77.653468     -0.21504723     0             -0.094597244   -11.555016    
     32000   86.454811     -0.22869889     0             -0.094596952    30.892876    
     32500   93.36703      -0.23941702     0             -0.094593385   -6.7133841    
     33000   85.802753     -0.22768647     0             -0.094595954   -45.92601     
     33500   87.281634     -0.22998186     0             -0.094597423    25.047495    
     34000   72.197516     -0.20658469     0             -0.094597553   -13.679251    
     34500   51.667372     -0.17474012     0             -0.094597739   -39.254616    
     35000   71.783461     -0.20594402     0             -0.094599132    18.451934    
     35500   89.991193     -0.23418524     0             -0.094597947    36.798008    
     36000   103.88538     -0.25573734     0             -0.094598464    38.365222    
     36500   68.446532     -0.20076619     0             -0.094597291   -5.6682563    
     37000   102.19656     -0.25311889     0             -0.094599581    64.904478    
     37500   61.013156     -0.18924063     0             -0.0946018      20.832585    
     38000   125.99797     -0.29002874     0             -0.094590555    91.621674    
     38500   58.949377     -0.1860351      0             -0.094597439   -57.226933    
     39000   88.449973     -0.23179412     0             -0.094597447    41.068056    
     39500   81.018131     -0.22026615     0             -0.094597163   -8.3816943    
     40000   76.098707     -0.21263633     0             -0.094597969    22.190352    
     40500   52.569041     -0.17613764     0             -0.094596655   -60.46077     
     41000   97.951799     -0.24654055     0             -0.094605391    44.810764    
     41500   92.807034     -0.23855504     0             -0.094600031    32.015498    
     42000   75.99526      -0.21243341     0             -0.094555509    172.68467    
     42500   106.87918     -0.26038068     0             -0.094598064   -5.8541421    
     43000   74.232904     -0.20973986     0             -0.094595591   -81.595853    
     43500   63.752891     -0.1934875      0             -0.094599      -27.226305    
     44000   72.775697     -0.20748214     0             -0.094598174   -21.437879    
     44500   100.23691     -0.25007823     0             -0.094598576    29.974401    
     45000   70.266246     -0.20358519     0             -0.094593687   -54.921087    
     45500   76.39876      -0.21309622     0             -0.094592442    107.70779    
     46000   46.452536     -0.16665023     0             -0.09459669    -53.893188    
     46500   70.318101     -0.20366897     0             -0.094597038   -66.693276    
     47000   113.77975     -0.27108479     0             -0.094598541    4.7710237    
     47500   75.641168     -0.21192607     0             -0.094597412   -51.367305    
     48000   97.11495      -0.24523575     0             -0.094598641   -41.794524    
     48500   102.17928     -0.25308984     0             -0.094597328    72.802784    
     49000   61.921264     -0.19064491     0             -0.094597493   -94.329038    
     49500   88.94118      -0.23255554     0             -0.094596939    30.389987    
     50000   72.852256     -0.20760041     0             -0.094597689   -39.23996     
     50500   103.99897     -0.25590703     0             -0.094591973    42.80674     
     51000   59.174691     -0.18638495     0             -0.094597799   -69.425966    
     51500   103.96918     -0.25586766     0             -0.0945988      36.389627    
     52000   99.776262     -0.24936222     0             -0.094597086   -31.254568    
     52500   68.212348     -0.20040303     0             -0.094597376   -40.955649    
     53000   86.321918     -0.22849242     0             -0.094596614    37.764351    
     53500   92.841954     -0.23860986     0             -0.094600691    145.97152    
     54000   96.818967     -0.24477587     0             -0.094597863   -6.5442537    
     54500   98.209481     -0.24693283     0             -0.094597965   -13.582633    
     55000   107.51341     -0.261365       0             -0.094598611    33.269032    
     55500   80.359777     -0.21927005     0             -0.094622257    0.1160622    
     56000   100.93548     -0.25116252     0             -0.094599294    1.2171696    
     56500   97.598984     -0.24608268     0             -0.09469477     10.295567    
     57000   69.148363     -0.20185394     0             -0.094596409   -39.226203    
     57500   66.74442      -0.1981265      0             -0.094597781   -52.346168    
     58000   137.20438     -0.30742315     0             -0.094602463    104.74439    
     58500   74.836915     -0.21067106     0             -0.094589891    79.023748    
     59000   70.567418     -0.20405633     0             -0.09459767    -68.945025    
     59500   101.49243     -0.25202608     0             -0.094598958    38.925309    
     60000   92.639038     -0.23829197     0             -0.094597541    4.886439     
     60500   85.806915     -0.22769428     0             -0.094597304    55.223776    
     61000   102.89014     -0.25419615     0             -0.094601023    52.871557    
     61500   88.880091     -0.2324627      0             -0.094598856    24.668644    
     62000   78.959923     -0.21707499     0             -0.094598542   -0.82727801   
     62500   80.164217     -0.21894458     0             -0.094600123   -9.3123012    
     63000   97.363278     -0.24562249     0             -0.094600188    13.08299     
     63500   82.964114     -0.2232743      0             -0.09458686     230.36254    
     64000   83.443857     -0.22402932     0             -0.094597744   -7.2159077    
     64500   66.318368     -0.19746553     0             -0.094597672   -51.066723    
     65000   59.392358     -0.18672179     0             -0.094597013   -100.5964     
     65500   100.07841     -0.24983177     0             -0.094597965   -9.904085     
     66000   70.566158     -0.20405416     0             -0.094597456   -41.757422    
     66500   90.907536     -0.23560085     0             -0.094592195    63.906695    
     67000   80.029012     -0.21873215     0             -0.09459741    -28.576948    
     67500   79.089123     -0.21727383     0             -0.094596974   -47.77135     
     68000   69.318321     -0.20211873     0             -0.094597574   -53.687575    
     68500   137.59146     -0.3080265      0             -0.0946054      114.22421    
     69000   83.03236      -0.22339206     0             -0.094598758    72.689439    
     69500   55.219378     -0.18024894     0             -0.094596967   -21.321808    
     70000   84.936588     -0.22634298     0             -0.094595988    50.422419    
     70500   93.493256     -0.23962766     0             -0.094608235    3.4439755    
     71000   86.765329     -0.22918127     0             -0.094597687   -58.982025    
     71500   86.004908     -0.22800128     0             -0.094597195   -17.588036    
     72000   64.938738     -0.19533602     0             -0.094608128    23.997006    
     72500   107.63978     -0.26156217     0             -0.09459977     85.356002    
     73000   63.458502     -0.19303013     0             -0.094598264   -60.492091    
     73500   75.815863     -0.21219717     0             -0.094597538   -10.053829    
     74000   133.93341     -0.30234603     0             -0.094599007    79.406336    
     74500   52.281139     -0.1756921      0             -0.094597694   -69.348428    
     75000   97.247105     -0.24543845     0             -0.094596349    19.340467    
     75500   86.55392      -0.22885308     0             -0.094597414    16.117045    
     76000   63.151886     -0.19257508     0             -0.094618817    93.004253    
     76500   99.984893     -0.24968779     0             -0.09459905     46.721114    
     77000   61.187457     -0.18949615     0             -0.094586958    91.66983     
     77500   95.995808     -0.24350262     0             -0.09460143    -14.383387    
     78000   56.516831     -0.18226001     0             -0.094595529   -42.297432    
     78500   99.466057     -0.24888175     0             -0.094597787   -3.1442754    
     79000   40.925999     -0.15807841     0             -0.094597204   -84.290492    
     79500   70.404516     -0.20380469     0             -0.094598715    32.317624    
     80000   71.468319     -0.20545366     0             -0.094597599   -42.848818    
     80500   107.31104     -0.26106736     0             -0.094614873    1.2813673    
     81000   63.271887     -0.19273985     0             -0.09459745    -103.33079    
     81500   107.57935     -0.26146518     0             -0.094596518    25.761571    
     82000   97.926929     -0.24649055     0             -0.094593963   -4.2447095    
     82500   71.591167     -0.20564419     0             -0.094597578   -26.190758    
     83000   103.79472     -0.25559233     0             -0.094594089    59.580946    
     83500   68.029614     -0.2001174      0             -0.094595183   -47.533682    
     84000   95.145589     -0.24218144     0             -0.094599048    9.3668539    
     84500   66.07887      -0.19709398     0             -0.094597604   -19.474296    
     85000   51.708413     -0.17479462     0             -0.094588581    59.65867     
     85500   53.711917     -0.17791765     0             -0.094603932    41.383923    
     86000   51.955551     -0.17518258     0             -0.094593198    11.779557    
     86500   78.951188     -0.21706005     0             -0.094597147   -30.904459    
     87000   92.792749     -0.23853094     0             -0.094598086    43.422484    
     87500   75.028583     -0.21097527     0             -0.0945968     -48.476591    
     88000   95.864465     -0.24328767     0             -0.094590213    166.23851    
     88500   81.086217     -0.22037271     0             -0.094598118   -24.986108    
     89000   93.160296     -0.23909454     0             -0.09459158     4.2193148    
     89500   104.71091     -0.25701769     0             -0.094598322    48.586109    
     90000   78.390529     -0.2162115      0             -0.094618241    9.421847     
     90500   80.922347     -0.2201177      0             -0.094597291   -9.7138141    
     91000   71.623571     -0.20569696     0             -0.09460008     7.8023993    
     91500   133.75442     -0.30207        0             -0.094600609    64.939005    
     92000   82.410059     -0.22242474     0             -0.094596711    1.8726007    
     92500   72.593475     -0.20720143     0             -0.094600117    17.718522    
     93000   94.778745     -0.24161153     0             -0.094598161    62.174479    
     93500   47.042333     -0.167566       0             -0.094597613   -27.698716    
     94000   61.580357     -0.19012258     0             -0.094603953   -17.675102    
     94500   71.535964     -0.20555829     0             -0.094597298    15.813962    
     95000   61.902786     -0.19061545     0             -0.09459669     9.3487544    
     95500   97.251335     -0.24544133     0             -0.094592668    0.62193938   
     96000   62.864678     -0.19210894     0             -0.094598173    129.29923    
     96500   68.809086     -0.20132803     0             -0.094596761   -24.006561    
     97000   104.03852     -0.25597143     0             -0.094595014   -3.5289397    
     97500   54.517035     -0.17916002     0             -0.094597457   -63.713068    
     98000   88.659604     -0.2321088      0             -0.094586957    8.3033676    
     98500   65.547258     -0.19626921     0             -0.094597432   -53.653231    
     99000   67.48542      -0.19927404     0             -0.094595941   -7.6795334    
     99500   69.816558     -0.20289126     0             -0.094597281    19.461687    
    100000   82.393578     -0.22246982     0             -0.094667347    23.489386    
    100500   92.770624     -0.23849874     0             -0.094600204   -86.104053    
    101000   109.02899     -0.26371057     0             -0.09459334     68.166956    
    101500   57.098236     -0.18316841     0             -0.094602096   -44.190965    
    102000   106.95598     -0.26049931     0             -0.094597567    116.12218    
    102500   74.041617     -0.20944527     0             -0.09459771    -30.840277    
    103000   74.488397     -0.2101382      0             -0.094597631   -30.131627    
    103500   65.039344     -0.19548296     0             -0.094599022    10.548043    
    104000   101.06611     -0.25140916     0             -0.094643327    68.567035    
    104500   74.490861     -0.21014201     0             -0.094597618   -43.258738    
    105000   68.386291     -0.20067237     0             -0.094596905   -23.825547    
    105500   85.318272     -0.22693217     0             -0.094593141   -5.5576106    
    106000   78.980207     -0.21710543     0             -0.094597516   -35.768781    
    106500   53.076798     -0.17692603     0             -0.09459745    -36.586102    
    107000   64.133005     -0.19407638     0             -0.094598284    18.681482    
    107500   73.400936     -0.20845149     0             -0.0945977     -8.1875971    
    108000   88.253827     -0.23148459     0             -0.094592159    63.893499    
    108500   37.652376     -0.15300133     0             -0.094597912   -51.5549      
    109000   70.291753     -0.20362734     0             -0.094596277   -6.3509119    
    109500   72.071862     -0.20646858     0             -0.094676347    172.83296    
    110000   84.412502     -0.2255337      0             -0.09459963     29.105268    
    110500   60.913339     -0.18908104     0             -0.094597035   -85.589222    
    111000   90.627113     -0.23517153     0             -0.094597848   -10.216441    
    111500   90.912316     -0.23561413     0             -0.094598056    11.78744     
    112000   68.816028     -0.2013399      0             -0.094597863   -53.874447    
    112500   110.37121     -0.26582642     0             -0.094627243    11.667944    
    113000   87.152958     -0.2297837      0             -0.09459885    -47.652641    
    113500   83.132114     -0.22354625     0             -0.094598221   -33.802265    
    114000   119.33754     -0.27970635     0             -0.094599292    57.530106    
    114500   69.085944     -0.2017576      0             -0.094596893   -28.59015     
    115000   91.934142     -0.23719874     0             -0.094597697   -37.123613    
    115500   70.016406     -0.20320146     0             -0.094597485    5.145534     
    116000   97.677305     -0.24610814     0             -0.094598745    24.980839    
    116500   82.363048     -0.22235164     0             -0.094596523   -7.1631225    
    117000   71.488837     -0.20548549     0             -0.094597596   -49.590089    
    117500   81.803212     -0.22148339     0             -0.094596646    51.38148     
    118000   84.660644     -0.22591672     0             -0.094597757   -40.640248    
    118500   99.207698     -0.24848098     0             -0.094597763   -77.24668     
    119000   81.378344     -0.22082547     0             -0.09459775    -26.419608    
    119500   92.743113     -0.23845157     0             -0.094595714    97.043714    
    120000   82.271041     -0.22221296     0             -0.094600564   -15.695035    
    120500   68.429866     -0.20074963     0             -0.094606576    5.3516204    
    121000   100.828       -0.25099508     0             -0.09459857     3.0098168    
    121500   117.45903     -0.27676262     0             -0.094569358    169.48636    
    122000   76.788546     -0.21372238     0             -0.094613999   -19.49731     
    122500   116.36847     -0.27509939     0             -0.094597736    43.920043    
    123000   83.712607     -0.22444576     0             -0.094597313   -6.6903335    
    123500   119.38755     -0.27978326     0             -0.094598644    68.720396    
    124000   73.8504       -0.20914642     0             -0.094595458   -16.328487    
    124500   107.52278     -0.26137549     0             -0.094594568    111.39019    
    125000   95.99684      -0.24350135     0             -0.094598565    25.939127    
    125500   81.687605     -0.221306       0             -0.094598575   -7.3708572    
    126000   101.42604     -0.25192269     0             -0.094598556    24.837983    
    126500   104.66503     -0.25695565     0             -0.094607457    80.735394    
    127000   60.275001     -0.18809021     0             -0.094596345   -39.682154    
    127500   73.366045     -0.20839744     0             -0.094597774   -45.891408    
    128000   94.033094     -0.24045672     0             -0.094599941   -13.046176    
    128500   75.039032     -0.21099229     0             -0.094597615   -41.068056    
    129000   90.731736     -0.23533335     0             -0.09459738     30.659489    
    129500   68.517592     -0.20087735     0             -0.094598221    28.453742    
    130000   109.34312     -0.26419846     0             -0.094593981    88.572307    
    130500   57.404335     -0.18363888     0             -0.094597766   -74.871178    
    131000   106.44533     -0.25970427     0             -0.094594611   -14.949053    
    131500   60.967376     -0.18916531     0             -0.094597484   -85.974755    
    132000   97.360989     -0.24560985     0             -0.094591102   -30.615203    
    132500   112.3758      -0.26890889     0             -0.094600349    18.623335    
    133000   78.673046     -0.21663034     0             -0.094598868   -29.584779    
    133500   90.313252     -0.23468398     0             -0.094597127    41.105137    
    134000   119.95705     -0.28066483     0             -0.094596838    73.325567    
    134500   70.892008     -0.20455911     0             -0.094596971   -60.18121     
    135000   89.104435     -0.23280584     0             -0.094594011   -61.044031    
    135500   100.67394     -0.25075584     0             -0.094598303    107.56092    
    136000   47.157641     -0.16774471     0             -0.09459747    -64.959395    
    136500   150.40964     -0.32794017     0             -0.094636508    171.49553    
    137000   64.901773     -0.19527151     0             -0.094600964   -65.500177    
    137500   96.35818      -0.24406231     0             -0.094599043    35.591573    
    138000   75.931236     -0.21237634     0             -0.094597753   -20.558547    
    138500   102.05011     -0.25289039     0             -0.094598242   -36.744746    
    139000   69.3714       -0.20220346     0             -0.094599975   -117.50404    
    139500   92.354978     -0.23785312     0             -0.09459931    -11.506718    
    140000   94.705155     -0.24144141     0             -0.094542187    222.68393    
    140500   75.677274     -0.21197962     0             -0.094594953    9.0142454    
    141000   97.319835     -0.24555326     0             -0.09459835     65.918388    
    141500   54.051394     -0.17843817     0             -0.094597877   -31.026103    
    142000   88.385517     -0.23169546     0             -0.094598766    46.649307    
    142500   68.401342     -0.20069634     0             -0.09459753    -91.786585    
    143000   83.023898     -0.22337843     0             -0.094598258   -62.101629    
    143500   100.4036      -0.25033819     0             -0.094599976    92.667584    
    144000   64.734502     -0.19500914     0             -0.094598043   -20.276684    
    144500   85.796346     -0.22768106     0             -0.094600481    11.549147    
    145000   78.642389     -0.21658266     0             -0.094598742   -3.3711578    
    145500   109.56073     -0.264541       0             -0.094598975    35.293505    
    146000   91.284029     -0.23619131     0             -0.094598664    32.365117    
    146500   53.548739     -0.17765862     0             -0.094598003   -48.600011    
    147000   103.79466     -0.25561383     0             -0.094615672    13.908825    
    147500   58.751626     -0.18572931     0             -0.094598385   -33.239454    
    148000   127.73018     -0.29271797     0             -0.09459291     23.948137    
    148500   87.903538     -0.23094724     0             -0.094598156   -18.798071    
    149000   43.037312     -0.1613541      0             -0.094597986   -53.343281    
    149500   53.923126     -0.17823911     0             -0.094597773    47.061233    
    150000   72.863848     -0.20761862     0             -0.094597926    27.583571    
    150500   81.853768     -0.22156322     0             -0.094598059    48.729877    
    151000   57.107708     -0.1831791      0             -0.094598092   -22.110824    
    151500   73.459464     -0.20854246     0             -0.094597891   -0.42950638   
    152000   85.078507     -0.22656533     0             -0.094598204    74.779611    
    152500   82.78943      -0.22301221     0             -0.094595729   -51.051974    
    153000   77.88115      -0.21540092     0             -0.094597772   -14.015592    
    153500   87.132292     -0.22975107     0             -0.094598273    71.147876    
    154000   68.479679     -0.20081838     0             -0.094598065    8.7301027    
    154500   79.544218     -0.21797838     0             -0.094595611   -22.016136    
    155000   87.589334     -0.23045537     0             -0.094593653   -11.659373    
    155500   98.115505     -0.24678867     0             -0.094599574    11.14346     
    156000   75.414826     -0.21157488     0             -0.0945973      7.3843514    
    156500   47.249427     -0.16788811     0             -0.094598497   -32.731416    
    157000   70.700115     -0.20447377     0             -0.094809288    114.11034    
    157500   68.167643     -0.20032587     0             -0.094589555   -18.356105    
    158000   98.36491      -0.24717822     0             -0.09460227     134.00923    
    158500   76.683522     -0.21354364     0             -0.094598167   -45.138389    
    159000   94.880731     -0.24183402     0             -0.094662455    69.884329    
    159500   96.102672     -0.24366591     0             -0.094598963    29.432084    
    160000   59.415877     -0.18675832     0             -0.094597064   -93.840815    
    160500   116.15066     -0.27476078     0             -0.094596961    23.769027    
    161000   75.832072     -0.21221385     0             -0.094589077    35.227831    
    161500   75.305073     -0.211404       0             -0.094596659   -30.461013    
    162000   83.970097     -0.22484534     0             -0.094597501   -30.354476    
    162500   93.159533     -0.23909927     0             -0.094597497    7.8927429    
    163000   73.788316     -0.20905247     0             -0.094597813    20.363481    
    163500   97.941037     -0.24651597     0             -0.094597503    43.252269    
    164000   59.944742     -0.1875775      0             -0.094595912   -74.790881    
    164500   74.342946     -0.20991732     0             -0.094602365   -44.396336    
    165000   91.596982     -0.23667588     0             -0.094597812    1.3832074    
    165500   82.6486       -0.22279558     0             -0.094597539   -49.585593    
    166000   70.069531     -0.2032361      0             -0.094549724    199.22742    
    166500   92.88125      -0.23866815     0             -0.094598023   -23.850689    
    167000   98.480167     -0.24734742     0             -0.094592696   -11.053031    
    167500   86.656028     -0.22901444     0             -0.094600393    26.988129    
    168000   81.4776       -0.22098116     0             -0.094599482   -21.314168    
    168500   90.16383      -0.23445137     0             -0.094596296   -38.376508    
    169000   84.854927     -0.22621834     0             -0.094598015   -41.817757    
    169500   122.49241     -0.28460648     0             -0.09460583     129.85652    
    170000   61.247016     -0.18955305     0             -0.094551475    123.18469    
    170500   79.13023      -0.21733845     0             -0.094597832   -67.07257     
    171000   82.217495     -0.2220692      0             -0.094539855    277.76127    
    171500   62.09609      -0.19091479     0             -0.094596193    23.816296    
    172000   63.339933     -0.19285183     0             -0.094603885    8.2765712    
    172500   46.463529     -0.16666754     0             -0.094596946   -95.643175    
    173000   139.1099      -0.31037407     0             -0.094597684    120.04126    
    173500   53.875985     -0.17816165     0             -0.094593442   -89.491926    
    174000   121.18723     -0.28257416     0             -0.094598013    85.993608    
    174500   62.332514     -0.19128206     0             -0.094596741    12.489577    
    175000   71.000819     -0.20473361     0             -0.094602695   -46.009298    
    175500   78.914265     -0.21700321     0             -0.09459758    -9.4589708    
    176000   106.55209     -0.25986431     0             -0.094589052    76.763504    
    176500   58.931719     -0.18600706     0             -0.094596789   -32.026324    
    177000   60.856556     -0.18899318     0             -0.094597251   -13.521309    
    177500   61.329647     -0.18972703     0             -0.094597283   -36.613899    
    178000   74.51336      -0.21017436     0             -0.094595064    45.895498    
    178500   41.827755     -0.15947719     0             -0.094597248   -36.102008    
    179000   109.88188     -0.26504155     0             -0.09460138     58.932564    
    179500   73.100672     -0.20798608     0             -0.094598039    10.574831    
    180000   60.278392     -0.18809627     0             -0.094597142   -29.387469    
    180500   76.07166      -0.21259226     0             -0.094595852    4.1742152    
    181000   110.01005     -0.26524348     0             -0.094604502    11.64399     
    181500   112.94256     -0.26978807     0             -0.094600401   -1.3935218    
    182000   86.082142     -0.22811845     0             -0.094594573   -13.896891    
    182500   72.951316     -0.2077536      0             -0.094597223   -55.334706    
    183000   103.93605     -0.25581513     0             -0.094597659    89.773064    
    183500   88.209092     -0.23142114     0             -0.094598098    16.128525    
    184000   108.21872     -0.26245536     0             -0.094594959    47.035789    
    184500   76.257057     -0.21288176     0             -0.094597783   -20.794021    
    185000   99.842775     -0.24946398     0             -0.094595685    6.4504768    
    185500   92.809149     -0.23855587     0             -0.09459758    -1.4403266    
    186000   75.444474     -0.21159132     0             -0.094567754    162.23521    
    186500   71.31855      -0.20522136     0             -0.094597606    13.42113     
    187000   85.822478     -0.22771844     0             -0.094597326    36.823173    
    187500   118.82076     -0.27890399     0             -0.094598524    20.184308    
    188000   62.877935     -0.19212841     0             -0.094597082   -74.327418    
    188500   93.329761     -0.23935874     0             -0.094592923   -33.486645    
    189000   93.429275     -0.2395243      0             -0.094604122   -18.558042    
    189500   107.80372     -0.26181746     0             -0.094600769   -3.4422282    
    190000   80.095605     -0.21883481     0             -0.09459677    -35.740623    
    190500   73.869873     -0.209202       0             -0.094620832   -9.13728      
    191000   61.549072     -0.19010671     0             -0.094636606    65.928266    
    191500   70.220773     -0.20351723     0             -0.094596265   -48.561744    
    192000   83.846554     -0.22465347     0             -0.094597253    19.394885    
    192500   77.80531      -0.21528258     0             -0.094597074   -42.693432    
    193000   98.776256     -0.2478065      0             -0.094592504   -3.969935     
    193500   60.14392      -0.18788783     0             -0.094597283   -40.075907    
    194000   89.951243     -0.23412297     0             -0.094597645    30.694128    
    194500   120.15694     -0.28097465     0             -0.094596612    36.798627    
    195000   70.750524     -0.20433963     0             -0.094596954   -48.464644    
    195500   105.31331     -0.25795042     0             -0.094596658    97.284398    
    196000   88.544679     -0.23193559     0             -0.094592015    3.3257345    
    196500   86.703337     -0.22908511     0             -0.09459768     29.657191    
    197000   89.217374     -0.23298415     0             -0.094597146   -45.417278    
    197500   101.4231      -0.25195627     0             -0.094636695    70.780986    
    198000   83.435407     -0.22401475     0             -0.094596276    8.76574      
    198500   40.897278     -0.15803362     0             -0.094596964   -67.764459    
    199000   91.244854     -0.23613055     0             -0.094598672    75.623193    
    199500   64.597095     -0.19479491     0             -0.094596956   -22.979996    
    200000   90.106317     -0.2343632      0             -0.094597331   -2.780843     
    200500   89.76455      -0.23383305     0             -0.094597309   -10.599353    
    201000   92.849461     -0.23869489     0             -0.094674072    46.980912    
    201500   86.274107     -0.22842979     0             -0.094608143   -61.380385    
    202000   84.217154     -0.22523224     0             -0.094601177   -75.754842    
    202500   86.612904     -0.22894013     0             -0.094592969   -60.888357    
    203000   108.53038     -0.26294229     0             -0.09459846     61.143349    
    203500   80.255962     -0.21908409     0             -0.094597327   -60.15235     
    204000   93.235213     -0.23921658     0             -0.094597411    16.351959    
    204500   85.07199      -0.22660352     0             -0.094646506    106.85144    
    205000   64.33894      -0.19439389     0             -0.094596363   -49.265361    
    205500   94.951347     -0.24187885     0             -0.094597747    25.276861    
    206000   62.427457     -0.19142992     0             -0.094597338   -54.662542    
    206500   86.73343      -0.22912121     0             -0.094587105    174.48499    
    207000   59.403307     -0.18673809     0             -0.094596328   -54.110287    
    207500   85.594098     -0.2273684      0             -0.094601535    42.508699    
    208000   79.13884      -0.21737062     0             -0.094616639    44.930661    
    208500   67.337621     -0.1990455      0             -0.094596649   -39.832109    
    209000   99.68494      -0.24922198     0             -0.094598499   -26.845403    
    209500   99.889709     -0.2495383      0             -0.094597204    9.7305324    
    210000   87.706084     -0.23063495     0             -0.09459214    -35.769713    
    210500   88.537018     -0.23193778     0             -0.094606089   -53.999209    
    211000   99.084701     -0.24829032     0             -0.094597882    25.936663    
    211500   88.396742     -0.23170841     0             -0.094594298   -30.21722     
    212000   101.52826     -0.25207986     0             -0.094597163    6.0833998    
    212500   81.043027     -0.22030362     0             -0.094596021   -18.673721    
    213000   89.112067     -0.23282016     0             -0.094596496   -37.658134    
    213500   55.505585     -0.18069324     0             -0.094597323    2.4484551    
    214000   84.15269      -0.22512785     0             -0.094596778   -8.8938999    
    214500   78.530851     -0.21640794     0             -0.094597027   -56.656523    
    215000   103.34175     -0.25489372     0             -0.094598083    30.502021    
    215500   76.945392     -0.21394671     0             -0.094595035   -9.1782491    
    216000   98.819865     -0.2478793      0             -0.094597654    31.993295    
    216500   106.23603     -0.2593826      0             -0.094597584    11.829953    
    217000   77.495202     -0.21480119     0             -0.094596695   -57.03131     
    217500   131.21205     -0.29812657     0             -0.094600711    85.91596     
    218000   83.192843     -0.22364086     0             -0.094598631   -17.090944    
    218500   89.124692     -0.23284011     0             -0.094596864   -17.810755    
    219000   118.27052     -0.27804899     0             -0.094597018    51.282232    
    219500   72.073121     -0.20639159     0             -0.094597401   -71.665767    
    220000   84.593392     -0.22581181     0             -0.094597158   -12.134107    
    220500   83.182378     -0.22362077     0             -0.094594776   -0.29442313   
    221000   103.85164     -0.25570147     0             -0.094614935   -35.039793    
    221500   76.131045     -0.21268693     0             -0.094598412   -0.91239622   
    222000   90.079146     -0.23431929     0             -0.094595568    1.5911709    
    222500   83.113358     -0.2235291      0             -0.094610159    14.259007    
    223000   87.545598     -0.23038456     0             -0.094590683    77.699784    
    223500   67.532328     -0.19934749     0             -0.094596632    22.521521    
    224000   129.58193     -0.29561236     0             -0.094615001    81.977356    
    224500   83.543754     -0.2241838      0             -0.094597265   -2.3880214    
    225000   90.089125     -0.23434247     0             -0.09460327     8.9861443    
    225500   91.427188     -0.23642501     0             -0.094610312    16.536184    
    226000   95.134631     -0.24216295     0             -0.094597555    33.950559    
    226500   87.578766     -0.23046709     0             -0.094621764    77.566659    
    227000   74.603811     -0.21031669     0             -0.094597097   -5.4185171    
    227500   104.71746     -0.25702695     0             -0.094597426    2.6598734    
    228000   92.954407     -0.23878148     0             -0.094597879    34.279971    
    228500   89.363895     -0.23324066     0             -0.094626375   -8.6058307    
    229000   77.385369     -0.21463048     0             -0.094596347    26.857189    
    229500   94.301382     -0.24087087     0             -0.094597948   -29.504351    
    230000   94.14158      -0.2406205      0             -0.094595448   -1.6220946    
    230500   74.533679     -0.21020898     0             -0.094598168   -46.130537    
    231000   70.561639     -0.20404679     0             -0.094597097   -26.865524    
    231500   87.893504     -0.23093074     0             -0.094597214    9.1488011    
    232000   84.41601      -0.22552879     0             -0.094589282    15.350785    
    232500   87.988101     -0.23107802     0             -0.094597762    1.923746     
    233000   75.325952     -0.211437       0             -0.094597279   -21.781258    
    233500   81.879702     -0.22160244     0             -0.094597056   -8.5066707    
    234000   99.630262     -0.24914309     0             -0.09460442     155.59141    
    234500   79.454632     -0.21784254     0             -0.094598734   -9.9017781    
    235000   99.159186     -0.24840412     0             -0.094596149    4.476063     
    235500   74.913905     -0.21079751     0             -0.094596926   -31.451273    
    236000   73.367679     -0.2084002      0             -0.094597997   -23.478068    
    236500   111.60167     -0.26769931     0             -0.09459154    -19.48556     
    237000   90.280935     -0.23463292     0             -0.094596193   -41.469053    
    237500   76.824441     -0.21376095     0             -0.094596889   -70.118184    
    238000   101.08502     -0.25139194     0             -0.094596761    61.472347    
    238500   80.771887     -0.21988842     0             -0.094601388   -1.820363     
    239000   107.12667     -0.26076363     0             -0.094597131   -32.923489    
    239500   109.37658     -0.26425314     0             -0.094596757    63.779236    
    240000   91.296932     -0.23620582     0             -0.094593164    33.709634    
    240500   82.711724     -0.22289268     0             -0.094596725    12.090883    
    241000   74.007053     -0.20939092     0             -0.094596969   -57.18711     
    241500   55.806447     -0.18119671     0             -0.094634112   -57.041239    
    242000   84.243767     -0.22526996     0             -0.094597621    17.335786    
    242500   101.54447     -0.25210689     0             -0.094599065    24.920429    
    243000   73.908336     -0.20923421     0             -0.094593378    0.63724553   
    243500   75.368663     -0.21150413     0             -0.094598161    4.5653077    
    244000   65.812584     -0.19667986     0             -0.094596535   -6.2055249    
    244500   80.375992     -0.21925555     0             -0.094582597    102.43395    
    245000   86.916237     -0.22941682     0             -0.094599158    67.188834    
    245500   86.615554     -0.22895548     0             -0.094604215    98.550226    
    246000   74.872315     -0.21073301     0             -0.094596938   -48.148673    
    246500   87.12948      -0.22974352     0             -0.094595087   -55.887806    
    247000   106.57492     -0.25991386     0             -0.094603186    70.207209    
    247500   67.843324     -0.19983014     0             -0.094596887   -43.085287    
    248000   81.533761     -0.22106762     0             -0.094598832    64.766048    
    248500   59.81218      -0.1873706      0             -0.09459463    -26.909574    
    249000   104.92854     -0.25734974     0             -0.094592805    51.262262    
    249500   63.677498     -0.19336894     0             -0.094597388    39.004953    
    250000   72.459786     -0.2069908      0             -0.094596854   -17.648466    
    250500   72.16043      -0.20652764     0             -0.094598023   -15.69345     
    251000   64.41311      -0.19450932     0             -0.094596746   -58.517788    
    251500   82.452934     -0.22249225     0             -0.094597708    6.3230891    
    252000   80.747994     -0.21984657     0             -0.094596601    3.5969174    
    252500   93.978576     -0.24036994     0             -0.094597729    4.2222603    
    253000   79.931087     -0.2185801      0             -0.094597254   -20.788102    
    253500   85.847651     -0.22775766     0             -0.094597502   -39.054612    
    254000   91.784652     -0.23696638     0             -0.094597214    7.4250766    
    254500   57.025638     -0.18305042     0             -0.094596717   -82.697878    
    255000   83.649839     -0.22434899     0             -0.094597909    49.386285    
    255500   80.513677     -0.21948207     0             -0.094595558    14.403305    
    256000   58.25501      -0.18495718     0             -0.094596565   -30.995663    
    256500   78.10413      -0.21574693     0             -0.094597915    70.862829    
    257000   76.962262     -0.21397445     0             -0.094596611   -22.096316    
    257500   47.530062     -0.1683426      0             -0.094617686   -68.714502    
    258000   90.328766     -0.23470865     0             -0.094597737    36.696748    
    258500   108.57852     -0.26301625     0             -0.09459774    -1.4991076    
    259000   92.708437     -0.23839833     0             -0.094596263   -32.398865    
    259500   92.061626     -0.23739496     0             -0.094596167   -16.660503    
    260000   115.73636     -0.27411826     0             -0.09459707     5.3598165    
    260500   99.842671     -0.24946517     0             -0.094597032   -30.507303    
    261000   96.835854     -0.24480069     0             -0.094596492   -29.920207    
    261500   84.327963     -0.22540318     0             -0.094600242   -52.884934    
    262000   77.873013     -0.21538751     0             -0.094596989   -17.042676    
    262500   72.153729     -0.20651669     0             -0.094597469    16.975614    
    263000   93.243528     -0.239229       0             -0.094596935   -14.726533    
    263500   108.28888     -0.26258643     0             -0.094617184    13.244621    
    264000   79.763763     -0.2183166      0             -0.094593298   -74.180602    
    264500   103.28082     -0.25479136     0             -0.094590226   -69.391944    
    265000   83.164284     -0.22359418     0             -0.094596248   -27.144916    
    265500   101.02586     -0.2513049      0             -0.094601497    113.16689    
    266000   70.322043     -0.20367432     0             -0.094596269   -47.787376    
    266500   96.743635     -0.24465587     0             -0.094594711    22.43373     
    267000   75.758104     -0.2121064      0             -0.094596354    15.696262    
    267500   95.485191     -0.24272345     0             -0.09461429     96.523668    
    268000   99.078727     -0.24828137     0             -0.094598199    53.312084    
    268500   104.03489     -0.25596611     0             -0.094595336   -38.921627    
    269000   71.087158     -0.20486144     0             -0.094596608   -69.131768    
    269500   79.841786     -0.21844101     0             -0.094596675   -41.775867    
    270000   113.00877     -0.26988769     0             -0.094597326    24.126523    
    270500   83.49771      -0.22412586     0             -0.094610747    66.134002    
    271000   60.407166     -0.18829149     0             -0.094592624   -48.08407     
    271500   105.66109     -0.25848945     0             -0.094596241    206.49165    
    272000   87.648415     -0.2305503      0             -0.094596939    69.219048    
    272500   107.89383     -0.26197009     0             -0.09461362     127.04239    
    273000   95.574557     -0.24284475     0             -0.094596972    47.377076    
    273500   82.748391     -0.22278302     0             -0.094430194    460.09734    
    274000   86.863037     -0.22933172     0             -0.094596579    33.402044    
    274500   86.120314     -0.22817995     0             -0.094596861   -34.532549    
    275000   94.871644     -0.24175385     0             -0.094596383    9.7401248    
    275500   114.81246     -0.27268746     0             -0.094599355    26.813856    
    276000   82.600027     -0.22271738     0             -0.094594679   -42.534035    
    276500   71.456131     -0.20543315     0             -0.09459599     7.7257836    
    277000   108.22528     -0.26246762     0             -0.094597028    19.542971    
    277500   80.649941     -0.21969428     0             -0.094596403   -67.756928    
    278000   77.083243     -0.2141617      0             -0.094596201    22.000075    
    278500   94.013697     -0.24042973     0             -0.094603043    15.540569    
    279000   71.447275     -0.20542234     0             -0.094598916   -29.272684    
    279500   39.303705     -0.15556123     0             -0.094596397   -108.372      
    280000   87.852426     -0.23087657     0             -0.094606758   -3.8299528    
    280500   70.626554     -0.20414732     0             -0.094596939   -15.576939    
    281000   96.867144     -0.24484986     0             -0.094597127    33.783159    
    281500   78.16648      -0.21585635     0             -0.094610628    123.09677    
    282000   41.24287      -0.15856932     0             -0.094596609   -70.687927    
    282500   84.531033     -0.22571226     0             -0.094594331    104.42668    
    283000   53.078731     -0.17692823     0             -0.094596654   -74.484454    
    283500   90.636264     -0.23519366     0             -0.094605779    22.105741    
    284000   76.004788     -0.21248977     0             -0.09459709    -43.233681    
    284500   77.765038     -0.21521958     0             -0.094596544   -22.097091    
    285000   87.973323     -0.23105396     0             -0.094596623   -5.0425771    
    285500   53.129246     -0.17700172     0             -0.094591795   -62.932675    
    286000   75.545266     -0.21181778     0             -0.094637874    1.7302637    
    286500   94.45291      -0.24110175     0             -0.094593785    7.88301      
    287000   81.847818     -0.22155283     0             -0.094596898    7.5806906    
    287500   63.049596     -0.19239407     0             -0.094596468   -38.629559    
    288000   110.03888     -0.26528061     0             -0.094596901    38.077985    
    288500   79.59234      -0.21805408     0             -0.094596667    98.017188    
    289000   75.281177     -0.21136709     0             -0.09459682    -28.293708    
    289500   90.964684     -0.23569424     0             -0.094596944   -19.32944     
    290000   83.100804     -0.22349663     0             -0.094597165   -36.532088    
    290500   88.464136     -0.23182594     0             -0.094607294   -54.560154    
    291000   57.670541     -0.18405789     0             -0.09460386    -57.598037    
    291500   87.622632     -0.230511       0             -0.094597632    43.375446    
    292000   91.585603     -0.23669517     0             -0.094634749   -0.60112672   
    292500   102.70797     -0.2539168      0             -0.094604238    63.679803    
    293000   61.190496     -0.18951096     0             -0.094597055   -48.08503     
    293500   76.371067     -0.21305806     0             -0.094597237   -11.201265    
    294000   87.72815      -0.23067911     0             -0.094602069    68.522621    
    294500   78.924793     -0.21703606     0             -0.094614096   -15.007627    
    295000   69.136132     -0.20183501     0             -0.094596452   -9.8876797    
    295500   76.600232     -0.21341301     0             -0.094596726    37.646111    
    296000   77.102225     -0.21419155     0             -0.094596609   -12.675134    
    296500   92.686428     -0.23836507     0             -0.094597139   -31.312643    
    297000   98.765592     -0.24778616     0             -0.094588707    42.492027    
    297500   85.315572     -0.22693201     0             -0.094597177   -28.838085    
    298000   107.93414     -0.26201121     0             -0.094592211    6.1845139    
    298500   77.305711     -0.21450728     0             -0.094596711   -42.293032    
    299000   73.21015      -0.20815479     0             -0.09459694    -25.26162     
    299500   77.41574      -0.21467506     0             -0.094593818   -56.930555    
    300000   73.7162       -0.20894207     0             -0.094599265   -9.1230964    
    300500   104.88737     -0.25729196     0             -0.094598891    50.214978    
    301000   65.658211     -0.19644081     0             -0.094596934   -66.624802    
    301500   93.56786      -0.23972537     0             -0.094590225    141.05178    
    302000   75.708058     -0.2120574      0             -0.094624982    29.479838    
    302500   85.075419     -0.22655989     0             -0.094597554    7.3424618    
    303000   71.78855      -0.2059546      0             -0.094601821   -17.488064    
    303500   104.9504      -0.2573894      0             -0.09459855     29.951062    
    304000   76.743321     -0.21363596     0             -0.094597723   -50.169938    
    304500   76.689449     -0.21355197     0             -0.094597298   -31.044899    
    305000   86.035935     -0.22804909     0             -0.094596877   -24.397295    
    305500   62.105553     -0.1909303      0             -0.094597024   -58.878955    
    306000   96.858459     -0.24486441     0             -0.094625151    161.10006    
    306500   72.965291     -0.20777476     0             -0.094596707   -61.541562    
    307000   83.599979     -0.2242687      0             -0.094594956   -13.427007    
    307500   91.614256     -0.23670205     0             -0.094597186   -1.9085173    
    308000   79.157362     -0.21737996     0             -0.094597257   -11.313649    
    308500   101.96874     -0.25276389     0             -0.094597955   -14.250735    
    309000   98.132545     -0.24680702     0             -0.094591494    69.034023    
    309500   60.77398      -0.18886478     0             -0.094596939   -35.457671    
    310000   94.679044     -0.24141488     0             -0.094556157    168.68326    
    310500   92.051034     -0.23737719     0             -0.094594832    42.989695    
    311000   91.070174     -0.23585806     0             -0.094597138   -40.914006    
    311500   69.272204     -0.20204595     0             -0.094596326   -38.25042     
    312000   84.954237     -0.22637107     0             -0.094596703    24.752405    
    312500   87.294767     -0.23000113     0             -0.094596321   -42.013565    
    313000   65.243001     -0.19581675     0             -0.094616918   -52.281559    
    313500   117.43022     -0.27673765     0             -0.094589082    59.074048    
    314000   53.125016     -0.17700184     0             -0.094598473   -59.224662    
    314500   62.230187     -0.19112353     0             -0.094596934   -38.358631    
    315000   120.56664     -0.28161284     0             -0.094599305    40.021735    
    315500   67.134337     -0.19873047     0             -0.094596943   -5.690266     
    316000   75.749868     -0.21209502     0             -0.094597754    33.293686    
    316500   69.078842     -0.20178098     0             -0.094631289    155.56335    
    317000   77.984696     -0.21556117     0             -0.094597415   -44.891033    
    317500   79.005169     -0.21714336     0             -0.094596726   -11.237478    
    318000   96.654519     -0.24452025     0             -0.094597324    57.349319    
    318500   57.766687     -0.18420022     0             -0.09459706    -32.963176    
    319000   119.04422     -0.27926098     0             -0.094608906    67.2304      
    319500   72.962107     -0.20777035     0             -0.09459724    -21.206075    
    320000   112.34035     -0.26885126     0             -0.094597701    64.368574    
    320500   80.7642       -0.21987359     0             -0.09459848    -23.740523    
    321000   68.612772     -0.20102353     0             -0.094596769   -74.864714    
    321500   94.856357     -0.24173084     0             -0.09459708     48.151379    
    322000   94.324467     -0.24090637     0             -0.094597637    28.38661     
    322500   64.146861     -0.19409673     0             -0.094597136   -62.856658    
    323000   86.096615     -0.22814278     0             -0.094596452    23.028781    
    323500   81.501381     -0.22101526     0             -0.094596695   -63.780834    
    324000   78.817834     -0.21685456     0             -0.094598501   -13.950397    
    324500   85.465901     -0.2271752      0             -0.094607181    50.62144     
    325000   82.667289     -0.22282453     0             -0.094597497   -24.100162    
    325500   62.468458     -0.19152064     0             -0.094624455    93.789059    
    326000   66.150005     -0.19720299     0             -0.094596281    46.171546    
    326500   97.978992     -0.24657712     0             -0.094599774    4.0691617    
    327000   78.546034     -0.21642284     0             -0.094588375   -37.11557     
    327500   104.89923     -0.25732624     0             -0.094614757   -7.6744918    
    328000   89.690396     -0.23371705     0             -0.09459633    -12.325781    
    328500   64.230341     -0.19423581     0             -0.094606731   -74.43903     
    329000   83.437297     -0.22402552     0             -0.094604118    25.6217      
    329500   70.813603     -0.20443648     0             -0.094595961   -6.7746683    
    330000   110.87709     -0.26658298     0             -0.094599118    115.0327     
    330500   57.465964     -0.18373167     0             -0.094594968   -50.83193     
    331000   89.891628     -0.23404901     0             -0.094616153    316.74663    
    331500   88.812118     -0.23235651     0             -0.094598101   -0.93270237   
    332000   94.059944     -0.24049816     0             -0.094599731   -25.542805    
    332500   117.82419     -0.277388       0             -0.094628339    85.041709    
    333000   78.420803     -0.21623709     0             -0.09459688    -5.8722418    
    333500   49.742216     -0.17175214     0             -0.094595912   -36.272881    
    334000   106.95525     -0.26048759     0             -0.09458698     143.98885    
    334500   65.715496     -0.19652542     0             -0.094592686    31.469742    
    335000   91.352313     -0.23629416     0             -0.094595598   -24.423176    
    335500   91.799784     -0.23698912     0             -0.09459648    -42.677982    
    336000   59.37281      -0.18669124     0             -0.094596789   -80.767623    
    336500   113.90709     -0.27132114     0             -0.094637382    196.68396    
    337000   46.297237     -0.16640946     0             -0.094596807   -99.718341    
    337500   105.61766     -0.25842317     0             -0.094597331    74.971899    
    338000   56.915446     -0.18287965     0             -0.09459686    -46.905884    
    338500   107.90153     -0.26196728     0             -0.09459887     71.657969    
    339000   55.768108     -0.1811006      0             -0.09459748    -46.87622     
    339500   99.572869     -0.2490471      0             -0.094597457    126.79923    
    340000   70.172978     -0.20344366     0             -0.094596828   -26.939279    
    340500   74.531656     -0.2102049      0             -0.094597229   -2.2204523    
    341000   94.815407     -0.24166856     0             -0.094598326   -34.687417    
    341500   84.345503     -0.22542886     0             -0.09459872    -21.541755    
    342000   83.206151     -0.22366115     0             -0.094598276    0.20471656   
    342500   90.187779     -0.2344895      0             -0.094597273   -1.9739936    
    343000   67.331311     -0.19903617     0             -0.094597105   -44.025415    
    343500   104.33467     -0.25643112     0             -0.094595339   -10.598525    
    344000   99.575707     -0.24905081     0             -0.094596771    30.025106    
    344500   47.594205     -0.16841995     0             -0.094595546   -34.091342    
    345000   75.986451     -0.21246232     0             -0.094598079   -3.9472773    
    345500   79.77399      -0.21833643     0             -0.094597264   -0.76175297   
    346000   86.209329     -0.22832622     0             -0.094605053   -17.756582    
    346500   97.27789      -0.2454957      0             -0.094605848    41.186919    
    347000   74.15057      -0.20960394     0             -0.094587383    122.58011    
    347500   56.158154     -0.18170464     0             -0.094596507   -9.3694548    
    348000   106.59658     -0.25994043     0             -0.094596156    124.06223    
    348500   99.239584     -0.24852977     0             -0.094597096    19.487731    
    349000   87.005652     -0.22955753     0             -0.094601172    62.438006    
    349500   69.687658     -0.2027574      0             -0.094663358    85.958111    
    350000   86.925632     -0.22945752     0             -0.094625279    59.189991    
    350500   74.921095     -0.21080921     0             -0.094597467   -22.550569    
    351000   72.514543     -0.20707539     0             -0.094596502   -77.823436    
    351500   58.766399     -0.18575088     0             -0.094597045   -23.205089    
    352000   94.688049     -0.24146926     0             -0.094596571    21.433661    
    352500   69.866596     -0.20296894     0             -0.094597349   -36.210178    
    353000   76.436409     -0.21315912     0             -0.094596942   -93.716102    
    353500   93.395874     -0.2394693      0             -0.094600926   -57.252883    
    354000   92.999078     -0.23885066     0             -0.094597764    20.313827    
    354500   73.829863     -0.20911539     0             -0.094596284   -50.226943    
    355000   97.395508     -0.24566837     0             -0.094596084    30.7952      
    355500   53.748647     -0.17796724     0             -0.094596541   -57.086846    
    356000   110.85029     -0.26658504     0             -0.094642744    88.632895    
    356500   82.004851     -0.22179763     0             -0.094598125   -61.509875    
    357000   103.25256     -0.25475918     0             -0.094601882    42.664372    
    357500   58.021487     -0.18459488     0             -0.094596493   -60.43203     
    358000   80.197698     -0.21899296     0             -0.094596567   -13.569105    
    358500   98.413082     -0.2472483      0             -0.094597633    5.4546906    
    359000   67.274086     -0.1989488      0             -0.094598501   -77.535324    
    359500   117.28174     -0.27652273     0             -0.094604473    119.65249    
    360000   58.352151     -0.18511527     0             -0.094603982   -43.526231    
    360500   75.19443      -0.21123452     0             -0.0945988      10.638644    
    361000   85.540041     -0.22728057     0             -0.094597548    35.352722    
    361500   83.088187     -0.22347632     0             -0.094596428   -13.199874    
    362000   87.630265     -0.2305224      0             -0.094597194   -10.291147    
    362500   86.310513     -0.22847306     0             -0.094594945   -16.995432    
    363000   80.076688     -0.21885138     0             -0.094642691    100.39103    
    363500   68.960372     -0.20156294     0             -0.094597006   -25.872078    
    364000   104.03328     -0.2559662      0             -0.094597923    7.82788      
    364500   106.48211     -0.25977307     0             -0.094606363    47.567285    
    365000   69.224185     -0.20197091     0             -0.094595776    15.97799     
    365500   81.68889      -0.22130655     0             -0.094597139    26.80088     
    366000   61.890422     -0.19059674     0             -0.094597164    16.89134     
    366500   111.14242     -0.26699195     0             -0.094596519    88.138626    
    367000   104.24942     -0.25630033     0             -0.094596797   -4.4547065    
    367500   77.287613     -0.21447617     0             -0.094593677    17.808435    
    368000   81.466536     -0.22096158     0             -0.094597065    26.983027    
    368500   78.652997     -0.21659759     0             -0.094597214    9.9036397    
    369000   91.529857     -0.23657095     0             -0.094596997    33.389041    
    369500   91.833719     -0.23704199     0             -0.094596708   -17.998231    
    370000   77.189498     -0.21432771     0             -0.094597404    68.185175    
    370500   68.806229     -0.20132361     0             -0.094596774    15.583143    
    371000   84.089943     -0.2250301      0             -0.094596365   -64.570609    
    371500   86.458933     -0.22870469     0             -0.094596364   -35.738138    
    372000   102.15015     -0.25304469     0             -0.094597369    63.448542    
    372500   93.469702     -0.23958044     0             -0.094597554    8.4810979    
    373000   108.32356     -0.26262038     0             -0.094597357   -24.196886    
    373500   85.003129     -0.22644647     0             -0.094596265   -18.989921    
    374000   111.04069     -0.26683412     0             -0.094596496    34.731115    
    374500   90.328356     -0.23470729     0             -0.094597012   -5.4646957    
    375000   77.621863     -0.21499719     0             -0.094596228    25.255517    
    375500   84.972492     -0.22639953     0             -0.094596845    12.850737    
    376000   81.341795     -0.2207634      0             -0.094592378   -78.005201    
    376500   114.6422      -0.27242071     0             -0.094596707    13.655353    
    377000   97.87236      -0.24640894     0             -0.094596994    22.038455    
    377500   98.604211     -0.24755267     0             -0.094605537    99.409118    
    378000   96.758045     -0.24468048     0             -0.094596969    72.255597    
    378500   71.901357     -0.20612589     0             -0.094598131   -41.619387    
    379000   84.717478     -0.22600383     0             -0.094596709    63.554476    
    379500   98.448632     -0.24745785     0             -0.094752038    170.05712    
    380000   68.805674     -0.20132256     0             -0.094596582   -37.649846    
    380500   97.145843     -0.2454175      0             -0.094732468    104.5817     
    381000   77.658715     -0.21505556     0             -0.094597442   -38.029785    
    381500   103.14344     -0.25458604     0             -0.094598017    95.392715    
    382000   59.218512     -0.18645587     0             -0.094600745   -41.56321     
    382500   69.878288     -0.20299273     0             -0.094602995    6.8041566    
    383000   81.04922      -0.22031452     0             -0.09459731     9.1890255    
    383500   107.29997     -0.26102625     0             -0.094590943    28.893368    
    384000   75.125852     -0.21112436     0             -0.09459502    -53.299734    
    384500   98.880432     -0.24796871     0             -0.094593124    10.012072    
    385000   95.696414     -0.243033       0             -0.094596213   -10.274174    
    385500   65.686691     -0.19648494     0             -0.094596882   -31.190354    
    386000   62.598062     -0.19169472     0             -0.094597503    17.48464     
    386500   57.889301     -0.18439032     0             -0.094596965    10.478863    
    387000   58.349616     -0.18510383     0             -0.094596467   -6.9113001    
    387500   66.943968     -0.1984348      0             -0.094596558   -40.560836    
    388000   120.88587     -0.28209374     0             -0.09458504     29.723676    
    388500   76.440248     -0.21316598     0             -0.094597852   -14.962603    
    389000   79.984122     -0.21866193     0             -0.094596823   -69.929864    
    389500   69.256856     -0.20202304     0             -0.094597226   -80.506584    
    390000   101.36486     -0.25182124     0             -0.094592006    47.634018    
    390500   92.849446     -0.23858731     0             -0.094566511    124.14092    
    391000   112.77205     -0.26952052     0             -0.094597334    41.14483     
    391500   71.404402     -0.20536754     0             -0.094610624    79.073316    
    392000   91.189704     -0.23604404     0             -0.094597709    19.196089    
    392500   59.974153     -0.18762352     0             -0.094596308   -15.647079    
    393000   88.173371     -0.23136696     0             -0.094599324    97.06363     
    393500   36.080497     -0.15056098     0             -0.094595742   -130.84428    
    394000   64.142899     -0.19409213     0             -0.09459868    -5.5754134    
    394500   85.238476     -0.22681318     0             -0.094597932    69.575568    
    395000   87.858117     -0.23087673     0             -0.094598094    1.6469736    
    395500   72.598034     -0.20720558     0             -0.094597188    31.053679    
    396000   69.435387     -0.20229898     0             -0.094596238    24.873505    
    396500   58.144876     -0.18479743     0             -0.094607652   -37.872763    
    397000   69.622274     -0.2025899      0             -0.094597278   -38.676826    
    397500   91.676756     -0.23679557     0             -0.094593762    77.582297    
    398000   72.957772     -0.20776311     0             -0.094596728    27.71214     
    398500   59.199017     -0.18642125     0             -0.094596363   -77.637006    
    399000   87.419748     -0.23019093     0             -0.094592255   -28.716472    
    399500   48.77183      -0.17024753     0             -0.094596486   -75.543379    
    400000   86.928036     -0.22944732     0             -0.094611351    87.390479    
    400500   74.177179     -0.20965441     0             -0.094596577    44.394628    
    401000   59.60669      -0.18705427     0             -0.094597035   -24.434793    
    401500   99.716036     -0.24927004     0             -0.094598331   -11.599299    
    402000   70.380747     -0.20376974     0             -0.094600637   -114.40924    
    402500   98.969605     -0.2481119      0             -0.09459799    -36.635117    
    403000   84.768118     -0.22607721     0             -0.094591539   -48.460335    
    403500   83.716        -0.22445511     0             -0.0946014      117.07824    
    404000   87.739915     -0.2306937      0             -0.094598406    9.0240527    
    404500   104.52488     -0.25672832     0             -0.094597502   -6.4360084    
    405000   75.472466     -0.21166458     0             -0.094597596   -61.982642    
    405500   105.39034     -0.25808512     0             -0.094611868    120.32819    
    406000   88.080262     -0.23121866     0             -0.094595453   -54.978182    
    406500   96.818264     -0.24478841     0             -0.094611492    42.148428    
    407000   95.519238     -0.24283061     0             -0.09466864     63.337643    
    407500   101.42932     -0.25192627     0             -0.094597053    39.924582    
    408000   92.134351     -0.23750804     0             -0.094596441   -23.758501    
    408500   92.947852     -0.23876561     0             -0.094592177   -35.053461    
    409000   91.874467     -0.23710147     0             -0.094592989   -42.71875     
    409500   83.929013     -0.22478086     0             -0.09459674    -40.096756    
    410000   105.62027     -0.25844598     0             -0.094616077    89.547749    
    410500   98.438554     -0.24729783     0             -0.094607645    67.008055    
    411000   76.641654     -0.21347727     0             -0.094596732   -19.065999    
    411500   88.227986     -0.23144657     0             -0.094594225   -47.74907     
    412000   93.086822     -0.23898569     0             -0.094596691   -56.396535    
    412500   96.800355     -0.24474698     0             -0.094597848    67.123685    
    413000   67.036788     -0.19857965     0             -0.094597425   -38.144727    
    413500   74.728034     -0.21050818     0             -0.094595899    30.294212    
    414000   60.452443     -0.18836712     0             -0.094598023   -3.8824749    
    414500   102.03266     -0.25290364     0             -0.094638563    6.9757781    
    415000   54.161184     -0.17860846     0             -0.094597874   -38.361114    
    415500   86.10407      -0.22815509     0             -0.094597199   -4.5304261    
    416000   113.42003     -0.27051907     0             -0.094590787   -19.788787    
    416500   68.403589     -0.20069531     0             -0.094593016    3.399233     
    417000   90.271817     -0.23462231     0             -0.094599737   -37.331673    
    417500   98.345037     -0.24715134     0             -0.094606213    38.614542    
    418000   96.618004     -0.24446355     0             -0.094597262   -5.9023614    
    418500   78.470751     -0.21631472     0             -0.09459703     18.014061    
    419000   68.801485     -0.2013162      0             -0.094596716   -10.673017    
    419500   103.19281     -0.25466063     0             -0.094596022    36.361011    
    420000   69.499648     -0.20239916     0             -0.094596745   -62.942064    
    420500   137.36242     -0.30766615     0             -0.094600316    67.776861    
    421000   72.653891     -0.20731689     0             -0.094621865    67.019936    
    421500   91.934163     -0.23719862     0             -0.094597537   -23.980692    
    422000   83.92701      -0.22477281     0             -0.094591799   -23.362619    
    422500   89.858914     -0.23398161     0             -0.094599494    0.35568555   
    423000   80.029226     -0.2187341      0             -0.094599032    10.055198    
    423500   76.249155     -0.21286898     0             -0.094597257   -30.562422    
    424000   84.732069     -0.22602736     0             -0.094597606   -19.924058    
    424500   86.849783     -0.22930905     0             -0.094594467   -69.010551    
    425000   92.753126     -0.23847508     0             -0.094603687   -29.981512    
    425500   78.122755     -0.21575991     0             -0.09458201     114.90284    
    426000   97.244603     -0.2454364      0             -0.094598184    22.062436    
    426500   89.574287     -0.23353899     0             -0.094598361    8.3210409    
    427000   66.818315     -0.19824028     0             -0.09459694    -31.849751    
    427500   59.519652     -0.18691834     0             -0.094596117   -31.509996    
    428000   93.775915     -0.2400554      0             -0.094597534    76.822924    
    428500   77.03819      -0.2140927      0             -0.094597085   -55.621974    
    429000   97.914636     -0.24647496     0             -0.094597437   -2.3930977    
    429500   50.925111     -0.17358782     0             -0.094596778   -78.562426    
    430000   94.311361     -0.24088511     0             -0.09459671     1.5704919    
    430500   89.17743      -0.23292364     0             -0.094598595   -19.649465    
    431000   88.717169     -0.23220806     0             -0.094596932   -26.366429    
    431500   105.27532     -0.25789112     0             -0.094596277    59.614145    
    432000   82.945341     -0.22325603     0             -0.094597706    86.988199    
    432500   58.525339     -0.18537652     0             -0.094596592   -28.213333    
    433000   59.940599     -0.18756576     0             -0.094590598   -59.685379    
    433500   73.167231     -0.20811262     0             -0.094621342   -1.2806759    
    434000   103.07419     -0.25447922     0             -0.094598613    44.797896    
    434500   64.969584     -0.19535228     0             -0.094576543    71.712291    
    435000   59.357708     -0.18666766     0             -0.09459663    -96.830121    
    435500   90.086448     -0.23435328     0             -0.094618232    44.958912    
    436000   105.23488     -0.25782915     0             -0.094597041   -13.033544    
    436500   91.124985     -0.23594191     0             -0.094595966    60.055822    
    437000   78.523458     -0.21639716     0             -0.094597717   -23.500959    
    437500   79.943683     -0.21859742     0             -0.094595036   -6.1167496    
    438000   79.359372     -0.21769256     0             -0.094596514   -56.532741    
    438500   121.02871     -0.28232732     0             -0.094597067    39.908045    
    439000   80.274313     -0.21911201     0             -0.094596778   -43.570667    
    439500   122.7381      -0.28497497     0             -0.094593241    27.673545    
    440000   45.212879     -0.16472708     0             -0.094596398   -70.397628    
    440500   54.402712     -0.17898234     0             -0.094597112   -46.939436    
    441000   103.98875     -0.2558982      0             -0.094598995    11.568458    
    441500   72.700704     -0.20734087     0             -0.09457323     126.68908    
    442000   85.840426     -0.22774557     0             -0.09459662     20.894073    
    442500   74.418321     -0.21002865     0             -0.09459677    -15.27401     
    443000   60.437793     -0.18845799     0             -0.09471162     143.31545    
    443500   61.644492     -0.19021471     0             -0.094596595   -35.915139    
    444000   113.8742      -0.27122896     0             -0.094596219    70.8666      
    444500   73.733965     -0.20896619     0             -0.094595834   -82.276239    
    445000   94.28837      -0.24084749     0             -0.094594752   -2.8530297    
    445500   67.400908     -0.19914251     0             -0.094595493    18.348587    
    446000   68.166272     -0.20032327     0             -0.094589083    67.895954    
    446500   80.379558     -0.21927694     0             -0.094598465    20.399058    
[...]
   4892500   89.687395     -0.23371399     0             -0.09459792     9.1763554    
   4893000   95.210123     -0.24227989     0             -0.0945974     -23.506585    
   4893500   94.06584      -0.24049859     0             -0.094591016    45.495041    
   4894000   74.37782      -0.20996712     0             -0.094598062   -17.460508    
   4894500   82.233814     -0.22215208     0             -0.094597428    79.879375    
   4895000   77.825611     -0.21531508     0             -0.094598088    28.537284    
   4895500   69.637763     -0.20261322     0             -0.09459657     71.905584    
   4896000   90.68779      -0.23526539     0             -0.09459759     43.65236     
   4896500   89.05646      -0.23273499     0             -0.094597581    117.08399    
   4897000   95.189884     -0.2422498      0             -0.094598706    49.508102    
   4897500   107.61453     -0.26155544     0             -0.094632197    77.221797    
   4898000   99.853364     -0.2494814      0             -0.094596677    10.260525    
   4898500   82.832534     -0.22308449     0             -0.094601144   -33.446567    
   4899000   117.44834     -0.27685992     0             -0.094683254    248.58621    
   4899500   68.00733      -0.20008413     0             -0.094596482   -42.752718    
   4900000   68.922389     -0.20150474     0             -0.094597723   -46.577134    
   4900500   91.543419     -0.23659218     0             -0.094597193    62.863801    
   4901000   66.27253      -0.19739458     0             -0.094597814    2.0439409    
   4901500   95.092116     -0.24209787     0             -0.094598421    13.026864    
   4902000   55.426305     -0.18056783     0             -0.094594881    17.802403    
   4902500   68.786434     -0.20129375     0             -0.094597618    64.809252    
   4903000   56.127809     -0.18165782     0             -0.094596754   -8.9689874    
   4903500   95.748744     -0.24311693     0             -0.094598967    34.475527    
   4904000   73.022444     -0.20786214     0             -0.094595439   -7.32532      
   4904500   66.436889     -0.1976507      0             -0.094598995    22.230925    
   4905000   65.257569     -0.19581923     0             -0.094596801   -25.358228    
   4905500   90.978017     -0.23571474     0             -0.094596755   -11.310262    
   4906000   55.485411     -0.18066262     0             -0.094597989   -57.032685    
   4906500   99.285392     -0.24860117     0             -0.094597438   -23.292465    
   4907000   75.655768     -0.2119959      0             -0.094644597   -34.575652    
   4907500   75.903383     -0.21233313     0             -0.094597744   -26.489198    
   4908000   106.0713      -0.25913168     0             -0.094602179    25.067597    
   4908500   77.474833     -0.21476921     0             -0.094596314   -39.924421    
   4909000   91.433759     -0.23642305     0             -0.094598156    30.610479    
   4909500   79.275837     -0.2175649      0             -0.09459843     25.356063    
   4910000   108.22418     -0.26247378     0             -0.094604907    46.442682    
   4910500   83.240006     -0.22387347     0             -0.094758092    87.266289    
   4911000   83.755516     -0.22451263     0             -0.094597625   -22.046694    
   4911500   102.24258     -0.25319167     0             -0.094600976   -45.906096    
   4912000   91.121238     -0.23598901     0             -0.094648875   -8.0262375    
   4912500   76.167274     -0.21274287     0             -0.094598154   -8.1077421    
   4913000   96.788902     -0.24472803     0             -0.094596655    27.524009    
   4913500   93.435462     -0.2395533      0             -0.094623521   -4.708737     
   4914000   91.606227     -0.2366928      0             -0.094600387   -35.206424    
   4914500   81.714511     -0.22134322     0             -0.094594064   -26.129818    
   4915000   73.230838     -0.20818818     0             -0.094598237    12.357421    
   4915500   61.159921     -0.18953908     0             -0.094672592   -57.91186     
   4916000   78.115361     -0.2157645      0             -0.094598065   -17.889892    
   4916500   97.458846     -0.24579471     0             -0.09462418     22.159892    
   4917000   101.69351     -0.25233272     0             -0.094593699    11.011155    
   4917500   94.232523     -0.24076436     0             -0.094598248   -13.432212    
   4918000   103.15526     -0.25460559     0             -0.094599216   -17.662793    
   4918500   78.272244     -0.21600734     0             -0.094597563   -56.659014    
   4919000   104.661       -0.25694256     0             -0.094600618    74.276728    
   4919500   73.465213     -0.20855145     0             -0.094597957   -21.98433     
   4920000   65.499817     -0.19619636     0             -0.094598166   -32.981021    
   4920500   59.622615     -0.18707996     0             -0.094598024   -11.466535    
   4921000   63.430218     -0.19299722     0             -0.094609232    5.5661771    
   4921500   67.150746     -0.1987579      0             -0.09459892    -33.217722    
   4922000   103.17379     -0.25463158     0             -0.094596473    46.923265    
   4922500   70.490478     -0.2039565      0             -0.094617188   -2.8089523    
   4923000   42.717845     -0.1608582      0             -0.094597623   -40.467949    
   4923500   82.092746     -0.22196485     0             -0.094629009    27.847492    
   4924000   124.06735     -0.28704128     0             -0.094597722    68.068655    
   4924500   63.357484     -0.19287261     0             -0.094597438   -36.72331     
   4925000   105.45863     -0.25817194     0             -0.094592771    66.607332    
   4925500   75.638662     -0.21192252     0             -0.094597748   -24.451203    
   4926000   115.31892     -0.27347316     0             -0.094599473    131.11175    
   4926500   92.221202     -0.23764386     0             -0.094597553   -36.529588    
   4927000   73.695578     -0.20891125     0             -0.09460044    -51.526567    
   4927500   67.824725     -0.19980014     0             -0.09459574     19.411926    
   4928000   80.76074      -0.2198671      0             -0.094597358    62.996817    
   4928500   82.365663     -0.22235726     0             -0.094598093    19.080851    
   4929000   94.862463     -0.24174157     0             -0.09459834     40.44607     
   4929500   83.919546     -0.224767       0             -0.094597566    70.646957    
   4930000   87.168126     -0.22980643     0             -0.094598057    13.931557    
   4930500   78.251155     -0.2159746      0             -0.094597533   -56.947941    
   4931000   91.190475     -0.23606654     0             -0.094619012    46.331994    
   4931500   140.4365      -0.31243191     0             -0.094597809    97.932159    
   4932000   80.508916     -0.21947699     0             -0.094597858   -22.707292    
   4932500   94.376773     -0.24098631     0             -0.09459645     34.623349    
   4933000   91.038386     -0.23581149     0             -0.094599872   -5.6657707    
   4933500   94.770567     -0.24159887     0             -0.09459818     11.45429     
   4934000   108.40848     -0.2627548      0             -0.094600052    102.98194    
   4934500   88.203657     -0.2314125      0             -0.094597895    13.488313    
   4935000   91.789949     -0.23697437     0             -0.094596982    10.565352    
   4935500   80.685288     -0.21975827     0             -0.09460557     39.110453    
   4936000   77.102926     -0.21419636     0             -0.094600336    25.54504     
   4936500   91.490103     -0.23650583     0             -0.094593544    11.708088    
   4937000   75.154713     -0.21117001     0             -0.094595902   -16.106949    
   4937500   67.904265     -0.19992611     0             -0.094598328   -31.394015    
   4938000   79.895921     -0.21855472     0             -0.094626425    255.98825    
   4938500   74.696976     -0.2104618      0             -0.0945977     -6.293924     
   4939000   92.378719     -0.23788893     0             -0.094598293   -15.821659    
   4939500   69.174045     -0.20189483     0             -0.094597461   -29.565499    
   4940000   75.915071     -0.21235001     0             -0.094596488   -12.223255    
   4940500   85.440827     -0.22711378     0             -0.094584661    154.96285    
   4941000   81.969629     -0.22174282     0             -0.094597942    16.803671    
   4941500   75.201296     -0.21124376     0             -0.094597392   -9.6810828    
   4942000   85.022012     -0.22646596     0             -0.094586472   -28.439913    
   4942500   69.569032     -0.20250647     0             -0.094596431   -66.226769    
   4943000   98.975549     -0.24811782     0             -0.094594697    31.167581    
   4943500   90.707867     -0.23529642     0             -0.094597473   -48.150263    
   4944000   91.64957      -0.23675654     0             -0.094596898   -44.362706    
   4944500   105.76137     -0.25864732     0             -0.094598562    48.956194    
   4945000   103.39516     -0.25497504     0             -0.09459656     8.6646599    
   4945500   87.094661     -0.2296921      0             -0.094597682   -52.692479    
   4946000   102.69565     -0.25390094     0             -0.09460749     43.473635    
   4946500   61.904953     -0.19061962     0             -0.094597506   -63.835414    
   4947000   74.205853     -0.20970014     0             -0.094597828   -57.70361     
   4947500   116.6559      -0.27554566     0             -0.094598153    46.552401    
   4948000   82.352032     -0.2223364      0             -0.094598373   -4.6444267    
   4948500   97.384987     -0.24565382     0             -0.094597847   -14.33598     
   4949000   97.290875     -0.24550748     0             -0.094597493   -15.854583    
   4949500   81.737061     -0.2213821      0             -0.094597969   -3.1572481    
   4950000   92.818334     -0.23857111     0             -0.094598575    12.693171    
   4950500   75.683729     -0.21199284     0             -0.094598162   -0.82615646   
   4951000   114.0056      -0.27143301     0             -0.094596445    51.738526    
   4951500   101.795       -0.25249446     0             -0.094598021   -11.569098    
   4952000   85.555183     -0.22730391     0             -0.094597406    7.6828762    
   4952500   76.279426     -0.21291643     0             -0.094597755   -57.901844    
   4953000   80.722861     -0.21980866     0             -0.09459767    -40.601182    
   4953500   87.594964     -0.2304704      0             -0.094599949   -19.490845    
   4954000   99.432126     -0.24882775     0             -0.094596414    61.539511    
   4954500   82.516723     -0.22260748     0             -0.094614001   -40.468807    
   4955000   78.447452     -0.21627942     0             -0.094597869   -8.7506532    
   4955500   80.419659     -0.21931842     0             -0.094577737    164.65587    
   4956000   94.953873     -0.24189771     0             -0.094612692    67.936672    
   4956500   78.403898     -0.21621075     0             -0.094596755    5.3209967    
   4957000   111.78817     -0.2679938      0             -0.094596734   -20.598329    
   4957500   82.837397     -0.22309606     0             -0.094605175   -5.5125135    
   4958000   98.96788      -0.24810936     0             -0.094598132   -25.181225    
   4958500   120.71027     -0.28183625     0             -0.094599928    41.980325    
   4959000   51.880152     -0.17506978     0             -0.094597347   -78.622154    
   4959500   92.285081     -0.23774382     0             -0.094598429    40.340462    
   4960000   78.983148     -0.21711088     0             -0.0945984     -23.407057    
   4960500   136.73411     -0.30672624     0             -0.094634979    87.74909     
   4961000   73.225148     -0.20817874     0             -0.094597616   -34.114801    
   4961500   101.1028      -0.25141146     0             -0.094588715    22.043356    
   4962000   65.765312     -0.19660793     0             -0.094597925    4.977426     
   4962500   71.165512     -0.20498103     0             -0.094594653    64.911592    
   4963000   102.99519     -0.25435565     0             -0.094597576    28.154366    
   4963500   82.344346     -0.22232345     0             -0.094597344   -65.383205    
   4964000   100.59198     -0.25063042     0             -0.094600008    3.1666771    
   4964500   77.062422     -0.21413005     0             -0.094596853   -75.811624    
   4965000   75.294623     -0.21138759     0             -0.094596463   -52.731098    
   4965500   117.72617     -0.27722163     0             -0.094614006   -2.3976803    
   4966000   81.103245     -0.22039851     0             -0.094597505    39.073832    
   4966500   64.692587     -0.19494342     0             -0.09459734    -31.253551    
   4967000   90.71342      -0.23530481     0             -0.094597252    26.840075    
   4967500   84.823219     -0.22616964     0             -0.094598501    65.683571    
   4968000   90.338317     -0.23472398     0             -0.094598256    44.782774    
   4968500   112.36729     -0.26889545     0             -0.094600098    58.971272    
   4969000   51.896491     -0.17504143     0             -0.094543656    156.87681    
   4969500   59.085514     -0.18624388     0             -0.094595052   -34.556781    
   4970000   81.082091     -0.22036606     0             -0.094597861   -31.615249    
   4970500   88.033696     -0.23114706     0             -0.094596076   -44.798947    
   4971000   72.481785     -0.2070231      0             -0.094595027   -23.487113    
   4971500   83.271193     -0.22376191     0             -0.094598148   -9.8992083    
   4972000   87.199887     -0.22985237     0             -0.094594727    40.515118    
   4972500   69.23253      -0.20198615     0             -0.094598065   -26.26389     
   4973000   71.609506     -0.20567266     0             -0.094597598   -43.572656    
   4973500   117.45477     -0.27677294     0             -0.094586289    71.534594    
   4974000   75.958574     -0.21241712     0             -0.09459612    -56.370518    
   4974500   81.42124      -0.22089005     0             -0.094595798   -6.8300132    
   4975000   76.917503     -0.21390595     0             -0.094597535   -21.897905    
   4975500   65.27105      -0.19583984     0             -0.0945965      41.848011    
   4976000   81.98344      -0.22176398     0             -0.094597688    85.953499    
   4976500   70.708481     -0.20427262     0             -0.094595154   -17.162331    
   4977000   64.867387     -0.19521494     0             -0.094597725   -32.406055    
   4977500   75.280709     -0.21136877     0             -0.094599224    54.670818    
   4978000   61.223892     -0.18957224     0             -0.094606533    71.912549    
   4978500   108.57968     -0.26301878     0             -0.094598486    56.661494    
   4979000   79.934871     -0.21858732     0             -0.094598606   -16.135669    
   4979500   59.829038     -0.18739819     0             -0.094596066    19.270176    
   4980000   100.20101     -0.25002377     0             -0.094599803   -1.9607884    
   4980500   75.076591     -0.21104938     0             -0.094596452   -74.929842    
   4981000   121.90579     -0.28368859     0             -0.094597864    121.21774    
   4981500   64.68412      -0.19493022     0             -0.094597271   -28.272077    
   4982000   94.013445     -0.24042313     0             -0.094596832    81.263077    
   4982500   59.212137     -0.18644256     0             -0.094597331   -26.813579    
   4983000   107.29645     -0.26102796     0             -0.094598113    63.90246     
   4983500   61.401277     -0.18983794     0             -0.094597082   -45.977461    
   4984000   88.95879      -0.23258317     0             -0.094597258   -42.04937     
   4984500   113.19691     -0.27017996     0             -0.094597771    15.482353    
   4985000   54.92119      -0.17978688     0             -0.094597424   -79.350988    
   4985500   124.24879     -0.2873236      0             -0.094598604    154.55331    
   4986000   44.827244     -0.16412983     0             -0.094597318   -87.776223    
   4986500   94.011058     -0.24042013     0             -0.094597531    15.322635    
   4987000   83.518415     -0.2241442      0             -0.094596971   -55.592655    
   4987500   72.075364     -0.20639475     0             -0.094597085   -27.404927    
   4988000   91.349822     -0.23629125     0             -0.094596553    122.27706    
   4988500   60.214182     -0.18799699     0             -0.094597459   -55.612577    
   4989000   75.874038     -0.21229178     0             -0.094601908    22.622859    
   4989500   65.063699     -0.19551947     0             -0.094597751   -54.840551    
   4990000   93.197518     -0.23915989     0             -0.094599196   -23.396515    
   4990500   72.376844     -0.20686227     0             -0.094596976   -44.497517    
   4991000   116.33872     -0.27505913     0             -0.094603615    120.19352    
   4991500   71.575565     -0.20562012     0             -0.094597701   -48.336699    
   4992000   91.503515     -0.2365316      0             -0.094598512    71.876287    
   4992500   53.371949     -0.17738358     0             -0.094597191   -65.836385    
   4993000   69.476207     -0.20236335     0             -0.094597296   -7.7702202    
   4993500   71.728343     -0.20585697     0             -0.094597573   -1.0128395    
   4994000   84.31889      -0.22538666     0             -0.094597801   -52.80417     
   4994500   86.903401     -0.22939277     0             -0.094595015   -8.4382096    
   4995000   82.835356     -0.22308323     0             -0.094595511   -51.143734    
   4995500   121.91098     -0.28368744     0             -0.094588671    149.61877    
   4996000   84.539006     -0.22572795     0             -0.094597664   -20.575742    
   4996500   107.07231     -0.26068005     0             -0.094597861    14.615927    
   4997000   74.691445     -0.21045146     0             -0.094595936   -88.365822    
   4997500   98.187307     -0.24689894     0             -0.094598472    3.5131856    
   4998000   75.637521     -0.21192068     0             -0.094597676   -67.902317    
   4998500   95.622984     -0.24292055     0             -0.094597659    54.05833     
   4999000   96.108901     -0.24366986     0             -0.094593253    37.247503    
   4999500   60.662784     -0.18869183     0             -0.094596469   -121.69459    
   5000000   90.269409     -0.2346435      0             -0.094624657    27.662391    
Loop time of 129.096 on 1 procs for 5000000 steps with 13 atoms

Performance: 8365.859 ns/day, 0.003 hours/ns, 38730.828 timesteps/s, 503.501 katom-step/s
99.1% CPU use with 1 MPI tasks x no OpenMP threads

MPI task timing breakdown:
Section |  min time  |  avg time  |  max time  |%varavg| %total
---------------------------------------------------------------
Pair    | 123.98     | 123.98     | 123.98     |   0.0 | 96.03
Neigh   | 0.20849    | 0.20849    | 0.20849    |   0.0 |  0.16
Comm    | 1.7212     | 1.7212     | 1.7212     |   0.0 |  1.33
Output  | 0.30414    | 0.30414    | 0.30414    |   0.0 |  0.24
Modify  | 2.2304     | 2.2304     | 2.2304     |   0.0 |  1.73
Other   |            | 0.6545     |            |       |  0.51

Nlocal:             13 ave          13 max          13 min
Histogram: 1 0 0 0 0 0 0 0 0 0
Nghost:            123 ave         123 max         123 min
Histogram: 1 0 0 0 0 0 0 0 0 0
Neighs:             79 ave          79 max          79 min
Histogram: 1 0 0 0 0 0 0 0 0 0
FullNghs:          158 ave         158 max         158 min
Histogram: 1 0 0 0 0 0 0 0 0 0

Total # of neighbors = 158
Ave neighs/atom = 12.153846
Neighbor list builds = 42970
Dangerous builds = 0
